/*--------------------------------*- C++ -*----------------------------------*\
  =========                 |
  \\      /  F ield         | OpenFOAM: The Open Source CFD Toolbox
   \\    /   O peration     | Website:  https://openfoam.org
    \\  /    A nd           | Version:  9
     \\/     M anipulation  |
\*---------------------------------------------------------------------------*/
FoamFile
{
    format      ascii;
    class       volScalarField;
    location    "1.8";
    object      p;
}
// * * * * * * * * * * * * * * * * * * * * * * * * * * * * * * * * * * * * * //

dimensions      [0 2 -2 0 0 0 0];

internalField   nonuniform List<scalar> 
288000
(
-1.16857e-05
-2.12789e-05
-2.09942e-05
-2.07001e-05
-2.04242e-05
-2.03128e-05
-2.02819e-05
-2.03519e-05
-2.05122e-05
-2.07482e-05
-2.10471e-05
-2.1398e-05
-2.17785e-05
-2.21853e-05
-2.25785e-05
-2.29937e-05
-2.33188e-05
-2.37302e-05
-2.38004e-05
-2.36741e-05
-2.05826e-05
-2.19372e-05
-2.15386e-05
-2.1216e-05
-2.09375e-05
-2.08258e-05
-2.07937e-05
-2.08633e-05
-2.10227e-05
-2.12583e-05
-2.1557e-05
-2.19079e-05
-2.22884e-05
-2.26955e-05
-2.30889e-05
-2.35049e-05
-2.38313e-05
-2.42472e-05
-2.43522e-05
-2.43461e-05
-2.30096e-05
-2.29193e-05
-2.24546e-05
-2.21247e-05
-2.18459e-05
-2.17334e-05
-2.16996e-05
-2.17682e-05
-2.19264e-05
-2.21617e-05
-2.24602e-05
-2.28112e-05
-2.31921e-05
-2.35997e-05
-2.39939e-05
-2.44113e-05
-2.47401e-05
-2.51612e-05
-2.52814e-05
-2.53792e-05
-2.47295e-05
-2.38462e-05
-2.33135e-05
-2.29804e-05
-2.27047e-05
-2.25914e-05
-2.25561e-05
-2.26234e-05
-2.278e-05
-2.30151e-05
-2.33137e-05
-2.36652e-05
-2.40469e-05
-2.44554e-05
-2.48512e-05
-2.52703e-05
-2.56041e-05
-2.60316e-05
-2.61696e-05
-2.63891e-05
-2.55572e-05
-2.42356e-05
-2.36676e-05
-2.33382e-05
-2.30711e-05
-2.29588e-05
-2.29229e-05
-2.29885e-05
-2.31434e-05
-2.33779e-05
-2.36768e-05
-2.40289e-05
-2.44118e-05
-2.48214e-05
-2.52196e-05
-2.5641e-05
-2.59816e-05
-2.6417e-05
-2.65736e-05
-2.68974e-05
-2.5428e-05
-2.38528e-05
-2.32669e-05
-2.29463e-05
-2.26949e-05
-2.25873e-05
-2.25535e-05
-2.26181e-05
-2.27711e-05
-2.30048e-05
-2.33037e-05
-2.36564e-05
-2.40406e-05
-2.44515e-05
-2.48525e-05
-2.52768e-05
-2.56255e-05
-2.60699e-05
-2.62472e-05
-2.666e-05
-2.45085e-05
-2.27479e-05
-2.21469e-05
-2.18367e-05
-2.16068e-05
-2.15092e-05
-2.14817e-05
-2.15473e-05
-2.16991e-05
-2.19317e-05
-2.22303e-05
-2.25832e-05
-2.29685e-05
-2.33805e-05
-2.37846e-05
-2.4212e-05
-2.45698e-05
-2.50238e-05
-2.52238e-05
-2.57108e-05
-2.31852e-05
-2.1275e-05
-2.06533e-05
-2.03513e-05
-2.01452e-05
-2.00622e-05
-2.00459e-05
-2.01158e-05
-2.02682e-05
-2.05e-05
-2.0798e-05
-2.11504e-05
-2.15363e-05
-2.19489e-05
-2.2356e-05
-2.27863e-05
-2.31534e-05
-2.36166e-05
-2.38399e-05
-2.43835e-05
-2.20727e-05
-2.00434e-05
-1.93927e-05
-1.90948e-05
-1.89105e-05
-1.88444e-05
-1.88433e-05
-1.89211e-05
-1.90766e-05
-1.93088e-05
-1.96061e-05
-1.99576e-05
-2.03432e-05
-2.07558e-05
-2.11653e-05
-2.15978e-05
-2.19737e-05
-2.24444e-05
-2.26893e-05
-2.32691e-05
-2.19281e-05
-1.98122e-05
-1.91263e-05
-1.88278e-05
-1.8661e-05
-1.86111e-05
-1.86269e-05
-1.87154e-05
-1.88767e-05
-1.91108e-05
-1.9408e-05
-1.97583e-05
-2.01431e-05
-2.05548e-05
-2.09658e-05
-2.13995e-05
-2.17827e-05
-2.22581e-05
-2.25209e-05
-2.31163e-05
-2.35315e-05
-2.13615e-05
-2.06376e-05
-2.03357e-05
-2.01811e-05
-2.01448e-05
-2.01768e-05
-2.02771e-05
-2.0446e-05
-2.06835e-05
-2.09816e-05
-2.1331e-05
-2.17146e-05
-2.21248e-05
-2.25363e-05
-2.29697e-05
-2.33585e-05
-2.38348e-05
-2.41106e-05
-2.47033e-05
-2.7568e-05
-2.5373e-05
-2.46123e-05
-2.43058e-05
-2.41593e-05
-2.41333e-05
-2.41789e-05
-2.42905e-05
-2.44674e-05
-2.47094e-05
-2.50093e-05
-2.53583e-05
-2.57408e-05
-2.61492e-05
-2.65604e-05
-2.69923e-05
-2.73844e-05
-2.78576e-05
-2.81413e-05
-2.87176e-05
-3.45472e-05
-3.23497e-05
-3.15558e-05
-3.12449e-05
-3.11036e-05
-3.1085e-05
-3.11414e-05
-3.12622e-05
-3.14463e-05
-3.16927e-05
-3.19949e-05
-3.23442e-05
-3.27262e-05
-3.3133e-05
-3.35435e-05
-3.39728e-05
-3.43663e-05
-3.4833e-05
-3.51202e-05
-3.56717e-05
-4.47678e-05
-4.25824e-05
-4.17601e-05
-4.1446e-05
-4.13084e-05
-4.1295e-05
-4.13592e-05
-4.14868e-05
-4.16761e-05
-4.19258e-05
-4.22301e-05
-4.25802e-05
-4.29623e-05
-4.33681e-05
-4.3778e-05
-4.42045e-05
-4.4598e-05
-4.50561e-05
-4.53437e-05
-4.58672e-05
-5.83269e-05
-5.61609e-05
-5.53149e-05
-5.4999e-05
-5.48645e-05
-5.48549e-05
-5.49243e-05
-5.5056e-05
-5.52479e-05
-5.54991e-05
-5.58043e-05
-5.61549e-05
-5.65376e-05
-5.69432e-05
-5.73533e-05
-5.77775e-05
-5.81705e-05
-5.86194e-05
-5.89059e-05
-5.9403e-05
-7.51588e-05
-7.30138e-05
-7.21479e-05
-7.18316e-05
-7.17001e-05
-7.16934e-05
-7.1766e-05
-7.18993e-05
-7.2091e-05
-7.2341e-05
-7.2645e-05
-7.29951e-05
-7.33781e-05
-7.37844e-05
-7.41955e-05
-7.46187e-05
-7.50118e-05
-7.54527e-05
-7.57383e-05
-7.62137e-05
-9.50862e-05
-9.29607e-05
-9.20774e-05
-9.1762e-05
-9.16337e-05
-9.16295e-05
-9.17039e-05
-9.18365e-05
-9.20252e-05
-9.22709e-05
-9.25709e-05
-9.29184e-05
-9.33008e-05
-9.37078e-05
-9.41209e-05
-9.45447e-05
-9.49393e-05
-9.53748e-05
-9.56614e-05
-9.61216e-05
-0.000117872
-0.000115763
-0.000114865
-0.000114551
-0.000114426
-0.000114424
-0.0001145
-0.00011463
-0.000114813
-0.000115051
-0.000115344
-0.000115686
-0.000116066
-0.000116473
-0.000116888
-0.000117314
-0.000117712
-0.000118146
-0.000118436
-0.000118888
-0.000143263
-0.000141169
-0.000140255
-0.000139944
-0.000139823
-0.000139824
-0.0001399
-0.000140027
-0.000140202
-0.00014043
-0.000140712
-0.000141045
-0.000141419
-0.000141824
-0.000142241
-0.000142671
-0.000143074
-0.00014351
-0.000143808
-0.000144259
-0.000171019
-0.000168939
-0.000168012
-0.000167703
-0.000167588
-0.000167591
-0.000167668
-0.000167791
-0.000167957
-0.000168172
-0.00016844
-0.00016876
-0.000169125
-0.000169526
-0.000169943
-0.000170376
-0.000170786
-0.000171227
-0.000171537
-0.000171992
-0.000200933
-0.00019887
-0.000197931
-0.000197624
-0.000197514
-0.000197521
-0.000197598
-0.000197717
-0.000197875
-0.000198075
-0.000198326
-0.000198629
-0.000198981
-0.000199374
-0.000199789
-0.000200225
-0.000200642
-0.000201092
-0.000201415
-0.00020188
-0.000232835
-0.000230793
-0.000229845
-0.00022954
-0.000229436
-0.000229447
-0.000229526
-0.000229642
-0.00022979
-0.000229975
-0.000230207
-0.00023049
-0.000230825
-0.000231206
-0.000231617
-0.000232053
-0.000232477
-0.000232936
-0.000233276
-0.000233752
-0.000266596
-0.000264581
-0.000263626
-0.000263325
-0.000263226
-0.000263242
-0.000263323
-0.000263436
-0.000263575
-0.000263745
-0.000263957
-0.000264218
-0.000264533
-0.000264898
-0.000265299
-0.000265733
-0.000266164
-0.000266632
-0.000266988
-0.000267478
-0.000302113
-0.000300134
-0.000299176
-0.000298878
-0.000298786
-0.000298807
-0.000298891
-0.000299003
-0.000299134
-0.000299289
-0.00029948
-0.000299717
-0.000300008
-0.000300354
-0.000300743
-0.000301172
-0.000301605
-0.000302082
-0.000302454
-0.000302956
-0.00033931
-0.000337377
-0.000336421
-0.000336128
-0.000336043
-0.000336069
-0.000336156
-0.000336268
-0.000336393
-0.000336534
-0.000336704
-0.000336916
-0.000337181
-0.000337504
-0.000337876
-0.000338296
-0.000338729
-0.000339211
-0.000339598
-0.000340111
-0.00037813
-0.000376252
-0.000375304
-0.000375016
-0.000374938
-0.00037497
-0.000375062
-0.000375174
-0.000375293
-0.000375422
-0.000375572
-0.000375759
-0.000375997
-0.000376294
-0.000376645
-0.000377052
-0.00037748
-0.000377964
-0.000378363
-0.000378884
-0.000418528
-0.000416715
-0.000415782
-0.000415501
-0.000415431
-0.000415469
-0.000415565
-0.000415679
-0.000415794
-0.000415912
-0.000416044
-0.000416206
-0.000416416
-0.000416684
-0.000417011
-0.0004174
-0.000417819
-0.0004183
-0.000418707
-0.000419232
-0.000460469
-0.000458732
-0.000457821
-0.000457548
-0.000457486
-0.000457531
-0.000457632
-0.000457748
-0.000457861
-0.00045797
-0.000458085
-0.000458224
-0.000458405
-0.000458643
-0.000458943
-0.000459309
-0.000459715
-0.000460188
-0.000460598
-0.000461123
-0.000503935
-0.000502282
-0.000501399
-0.000501137
-0.000501085
-0.000501136
-0.000501243
-0.000501362
-0.000501474
-0.000501576
-0.000501676
-0.000501793
-0.000501945
-0.000502152
-0.000502422
-0.000502762
-0.000503148
-0.000503608
-0.000504016
-0.000504536
-0.000548917
-0.000547357
-0.000546509
-0.00054626
-0.000546217
-0.000546276
-0.000546388
-0.000546511
-0.000546624
-0.00054672
-0.000546808
-0.000546904
-0.00054703
-0.000547205
-0.000547442
-0.000547751
-0.000548114
-0.000548555
-0.000548955
-0.000549466
-0.000595405
-0.000593944
-0.000593137
-0.000592902
-0.000592871
-0.000592938
-0.000593056
-0.000593183
-0.000593297
-0.00059339
-0.000593468
-0.000593545
-0.000593645
-0.000593789
-0.000593992
-0.000594268
-0.000594602
-0.000595018
-0.000595406
-0.000595901
-0.000643399
-0.000642041
-0.00064128
-0.000641063
-0.000641043
-0.000641118
-0.000641242
-0.000641375
-0.000641491
-0.000641582
-0.000641651
-0.000641713
-0.000641789
-0.000641902
-0.00064207
-0.000642311
-0.000642613
-0.000643
-0.00064337
-0.000643844
-0.00069287
-0.000691619
-0.000690909
-0.000690711
-0.000690703
-0.000690786
-0.000690917
-0.000691054
-0.000691173
-0.000691264
-0.000691327
-0.000691376
-0.00069143
-0.000691513
-0.000691647
-0.000691851
-0.000692117
-0.000692471
-0.000692817
-0.000693266
-0.000743808
-0.000742667
-0.00074201
-0.000741832
-0.000741837
-0.000741929
-0.000742066
-0.000742209
-0.000742332
-0.000742423
-0.000742482
-0.00074252
-0.000742554
-0.00074261
-0.00074271
-0.000742875
-0.000743104
-0.000743421
-0.00074374
-0.000744158
-0.000796179
-0.000795146
-0.000794546
-0.000794389
-0.000794406
-0.000794508
-0.000794651
-0.000794799
-0.000794927
-0.00079502
-0.000795077
-0.000795105
-0.000795123
-0.000795153
-0.00079522
-0.000795347
-0.000795537
-0.000795813
-0.000796101
-0.000796486
-0.000850002
-0.000849076
-0.000848533
-0.000848396
-0.000848427
-0.000848537
-0.000848687
-0.000848841
-0.000848973
-0.000849069
-0.000849125
-0.000849147
-0.00084915
-0.000849158
-0.000849194
-0.000849285
-0.000849435
-0.00084967
-0.000849923
-0.00085027
-0.000905204
-0.00090438
-0.000903891
-0.000903775
-0.000903817
-0.000903936
-0.000904092
-0.000904252
-0.000904389
-0.000904489
-0.000904546
-0.000904565
-0.000904557
-0.000904547
-0.000904556
-0.000904612
-0.000904723
-0.000904915
-0.000905132
-0.000905439
-0.000961614
-0.000960885
-0.000960449
-0.000960352
-0.000960405
-0.000960531
-0.000960694
-0.00096086
-0.000961003
-0.000961109
-0.00096117
-0.000961187
-0.000961173
-0.000961148
-0.000961133
-0.000961157
-0.00096123
-0.000961379
-0.000961557
-0.000961821
-0.00101899
-0.00101835
-0.00101796
-0.00101788
-0.00101794
-0.00101808
-0.00101824
-0.00101842
-0.00101857
-0.00101868
-0.00101874
-0.00101876
-0.00101875
-0.00101871
-0.00101868
-0.00101867
-0.00101871
-0.00101882
-0.00101896
-0.00101917
-0.00107711
-0.00107655
-0.0010762
-0.00107613
-0.0010762
-0.00107634
-0.00107651
-0.00107669
-0.00107684
-0.00107696
-0.00107704
-0.00107706
-0.00107704
-0.001077
-0.00107695
-0.00107692
-0.00107693
-0.00107699
-0.00107709
-0.00107727
-0.00113571
-0.00113522
-0.00113491
-0.00113486
-0.00113493
-0.00113507
-0.00113524
-0.00113542
-0.00113559
-0.00113572
-0.0011358
-0.00113583
-0.00113581
-0.00113576
-0.0011357
-0.00113565
-0.00113563
-0.00113566
-0.00113573
-0.00113586
-0.00119417
-0.00119374
-0.00119347
-0.00119342
-0.00119349
-0.00119363
-0.00119381
-0.001194
-0.00119417
-0.00119431
-0.0011944
-0.00119444
-0.00119443
-0.00119438
-0.00119431
-0.00119424
-0.00119419
-0.00119419
-0.00119422
-0.00119432
-0.0012516
-0.00125122
-0.00125097
-0.00125093
-0.001251
-0.00125114
-0.00125132
-0.00125151
-0.00125169
-0.00125183
-0.00125193
-0.00125198
-0.00125198
-0.00125194
-0.00125186
-0.00125178
-0.00125172
-0.00125168
-0.00125168
-0.00125174
-0.00130698
-0.00130664
-0.00130641
-0.00130637
-0.00130643
-0.00130657
-0.00130675
-0.00130694
-0.00130712
-0.00130728
-0.00130739
-0.00130745
-0.00130746
-0.00130742
-0.00130735
-0.00130726
-0.00130718
-0.00130712
-0.00130709
-0.00130711
-0.00135982
-0.00135951
-0.00135929
-0.00135924
-0.0013593
-0.00135943
-0.00135961
-0.0013598
-0.00135999
-0.00136015
-0.00136028
-0.00136036
-0.00136038
-0.00136035
-0.00136029
-0.0013602
-0.0013601
-0.00136003
-0.00135997
-0.00135996
-0.00140953
-0.00140924
-0.00140902
-0.00140896
-0.00140901
-0.00140913
-0.0014093
-0.00140949
-0.00140969
-0.00140987
-0.00141001
-0.00141011
-0.00141015
-0.00141014
-0.00141008
-0.00141
-0.00140989
-0.0014098
-0.00140972
-0.00140968
-0.00145612
-0.00145583
-0.00145561
-0.00145553
-0.00145557
-0.00145568
-0.00145584
-0.00145603
-0.00145623
-0.00145642
-0.00145658
-0.0014567
-0.00145676
-0.00145677
-0.00145673
-0.00145665
-0.00145654
-0.00145644
-0.00145634
-0.00145627
-0.00150007
-0.00149978
-0.00149955
-0.00149946
-0.00149948
-0.00149958
-0.00149973
-0.00149992
-0.00150012
-0.00150032
-0.00150049
-0.00150063
-0.00150072
-0.00150074
-0.00150072
-0.00150065
-0.00150055
-0.00150044
-0.00150032
-0.00150023
-0.00154123
-0.00154095
-0.00154071
-0.0015406
-0.0015406
-0.00154068
-0.00154083
-0.00154101
-0.00154122
-0.00154143
-0.00154162
-0.00154177
-0.00154188
-0.00154193
-0.00154192
-0.00154186
-0.00154177
-0.00154165
-0.00154152
-0.00154141
-0.00157953
-0.00157925
-0.001579
-0.00157887
-0.00157885
-0.00157892
-0.00157904
-0.00157922
-0.00157943
-0.00157964
-0.00157984
-0.00158001
-0.00158014
-0.00158021
-0.00158023
-0.00158018
-0.00158009
-0.00157998
-0.00157984
-0.00157971
-0.00161419
-0.00161392
-0.00161366
-0.00161352
-0.00161348
-0.00161353
-0.00161365
-0.00161381
-0.00161401
-0.00161423
-0.00161444
-0.00161463
-0.00161478
-0.00161487
-0.0016149
-0.00161487
-0.00161479
-0.00161467
-0.00161453
-0.00161438
-0.0016439
-0.00164363
-0.00164337
-0.00164321
-0.00164316
-0.00164319
-0.00164329
-0.00164345
-0.00164365
-0.00164386
-0.00164408
-0.00164428
-0.00164445
-0.00164456
-0.00164461
-0.00164459
-0.00164452
-0.0016444
-0.00164425
-0.00164409
-0.00166813
-0.00166788
-0.00166762
-0.00166745
-0.00166737
-0.00166738
-0.00166747
-0.00166761
-0.0016678
-0.00166802
-0.00166825
-0.00166846
-0.00166864
-0.00166877
-0.00166884
-0.00166884
-0.00166877
-0.00166866
-0.0016685
-0.00166833
-0.0016879
-0.00168767
-0.00168741
-0.00168723
-0.00168713
-0.00168712
-0.00168719
-0.00168732
-0.00168749
-0.0016877
-0.00168793
-0.00168815
-0.00168834
-0.00168849
-0.00168857
-0.00168859
-0.00168854
-0.00168843
-0.00168828
-0.00168809
-0.00170409
-0.00170386
-0.0017036
-0.00170341
-0.0017033
-0.00170327
-0.00170332
-0.00170343
-0.0017036
-0.00170381
-0.00170403
-0.00170426
-0.00170446
-0.00170462
-0.00170472
-0.00170475
-0.00170471
-0.00170462
-0.00170447
-0.00170428
-0.00171482
-0.00171459
-0.00171432
-0.00171412
-0.001714
-0.00171396
-0.00171399
-0.00171409
-0.00171425
-0.00171445
-0.00171467
-0.0017149
-0.00171511
-0.00171529
-0.0017154
-0.00171545
-0.00171542
-0.00171533
-0.00171519
-0.00171501
-0.0017251
-0.00172488
-0.00172461
-0.0017244
-0.00172427
-0.00172422
-0.00172424
-0.00172434
-0.00172449
-0.00172468
-0.00172491
-0.00172514
-0.00172536
-0.00172554
-0.00172566
-0.00172571
-0.00172569
-0.00172561
-0.00172547
-0.00172528
-0.00173386
-0.00173365
-0.00173339
-0.00173318
-0.00173304
-0.00173298
-0.001733
-0.00173309
-0.00173323
-0.00173342
-0.00173365
-0.00173388
-0.0017341
-0.00173428
-0.00173441
-0.00173447
-0.00173445
-0.00173437
-0.00173423
-0.00173404
-0.00173996
-0.00173976
-0.0017395
-0.00173929
-0.00173915
-0.00173909
-0.0017391
-0.00173919
-0.00173933
-0.00173952
-0.00173974
-0.00173997
-0.00174019
-0.00174038
-0.00174051
-0.00174057
-0.00174055
-0.00174047
-0.00174033
-0.00174013
-0.00174326
-0.00174306
-0.0017428
-0.00174258
-0.00174244
-0.00174237
-0.00174238
-0.00174245
-0.00174259
-0.00174278
-0.001743
-0.00174323
-0.00174346
-0.00174364
-0.00174378
-0.00174385
-0.00174384
-0.00174376
-0.00174363
-0.00174344
-1.95655e-05
-2.09499e-05
-2.05567e-05
-2.02336e-05
-1.99558e-05
-1.98446e-05
-1.98131e-05
-1.98832e-05
-2.00432e-05
-2.02793e-05
-2.05784e-05
-2.09294e-05
-2.131e-05
-2.17171e-05
-2.21104e-05
-2.25263e-05
-2.28526e-05
-2.32681e-05
-2.3373e-05
-2.33603e-05
-2.14925e-05
-2.14716e-05
-2.10317e-05
-2.07052e-05
-2.04243e-05
-2.0312e-05
-2.02777e-05
-2.03458e-05
-2.05034e-05
-2.0738e-05
-2.10358e-05
-2.13861e-05
-2.17662e-05
-2.21731e-05
-2.25664e-05
-2.29826e-05
-2.33098e-05
-2.37263e-05
-2.38385e-05
-2.38673e-05
-2.28302e-05
-2.23046e-05
-2.18272e-05
-2.15021e-05
-2.12215e-05
-2.11078e-05
-2.10709e-05
-2.11369e-05
-2.12921e-05
-2.15254e-05
-2.18222e-05
-2.2172e-05
-2.2552e-05
-2.29591e-05
-2.3353e-05
-2.37702e-05
-2.40991e-05
-2.45191e-05
-2.46363e-05
-2.47419e-05
-2.42098e-05
-2.32116e-05
-2.26881e-05
-2.23635e-05
-2.20867e-05
-2.19722e-05
-2.19334e-05
-2.19973e-05
-2.21502e-05
-2.23824e-05
-2.26788e-05
-2.30286e-05
-2.34091e-05
-2.38168e-05
-2.42121e-05
-2.46309e-05
-2.49641e-05
-2.53895e-05
-2.55202e-05
-2.57312e-05
-2.51884e-05
-2.38658e-05
-2.33186e-05
-2.29982e-05
-2.27304e-05
-2.26168e-05
-2.25775e-05
-2.26394e-05
-2.27901e-05
-2.30212e-05
-2.33172e-05
-2.36673e-05
-2.40487e-05
-2.44572e-05
-2.48547e-05
-2.52756e-05
-2.56153e-05
-2.6048e-05
-2.61962e-05
-2.6508e-05
-2.5633e-05
-2.40816e-05
-2.35234e-05
-2.32104e-05
-2.29575e-05
-2.28484e-05
-2.28113e-05
-2.2872e-05
-2.30207e-05
-2.32505e-05
-2.35462e-05
-2.38965e-05
-2.42789e-05
-2.46885e-05
-2.50887e-05
-2.55124e-05
-2.586e-05
-2.63015e-05
-2.64708e-05
-2.68725e-05
-2.56031e-05
-2.38693e-05
-2.33015e-05
-2.29974e-05
-2.27644e-05
-2.26643e-05
-2.26334e-05
-2.2695e-05
-2.28425e-05
-2.30711e-05
-2.33662e-05
-2.37164e-05
-2.40997e-05
-2.45103e-05
-2.49134e-05
-2.53401e-05
-2.56967e-05
-2.6148e-05
-2.63408e-05
-2.68184e-05
-2.53543e-05
-2.34692e-05
-2.28854e-05
-2.25889e-05
-2.23775e-05
-2.22906e-05
-2.22703e-05
-2.23359e-05
-2.24841e-05
-2.27119e-05
-2.30062e-05
-2.33558e-05
-2.37395e-05
-2.41506e-05
-2.45567e-05
-2.49863e-05
-2.53522e-05
-2.58129e-05
-2.60298e-05
-2.65654e-05
-2.53402e-05
-2.33338e-05
-2.27247e-05
-2.24325e-05
-2.22411e-05
-2.21693e-05
-2.21631e-05
-2.22362e-05
-2.23874e-05
-2.26155e-05
-2.29093e-05
-2.32579e-05
-2.36414e-05
-2.40525e-05
-2.44611e-05
-2.48929e-05
-2.52676e-05
-2.57361e-05
-2.59753e-05
-2.65486e-05
-2.61585e-05
-2.40628e-05
-2.34206e-05
-2.31289e-05
-2.29537e-05
-2.28967e-05
-2.29062e-05
-2.29893e-05
-2.3146e-05
-2.3376e-05
-2.36699e-05
-2.40175e-05
-2.44003e-05
-2.48107e-05
-2.52208e-05
-2.56539e-05
-2.60362e-05
-2.65097e-05
-2.67674e-05
-2.73578e-05
-2.84626e-05
-2.63102e-05
-2.56308e-05
-2.53369e-05
-2.51735e-05
-2.5129e-05
-2.51538e-05
-2.52479e-05
-2.54118e-05
-2.56452e-05
-2.594e-05
-2.62869e-05
-2.66688e-05
-2.70779e-05
-2.74888e-05
-2.79219e-05
-2.831e-05
-2.87847e-05
-2.90562e-05
-2.96452e-05
-3.28649e-05
-3.0685e-05
-2.99681e-05
-2.96708e-05
-2.95153e-05
-2.94807e-05
-2.95186e-05
-2.96234e-05
-2.97948e-05
-3.00324e-05
-3.03291e-05
-3.06759e-05
-3.10571e-05
-3.14647e-05
-3.18757e-05
-3.23075e-05
-3.26994e-05
-3.31714e-05
-3.34518e-05
-3.40254e-05
-3.98574e-05
-3.76726e-05
-3.69212e-05
-3.66203e-05
-3.64702e-05
-3.64429e-05
-3.64913e-05
-3.6605e-05
-3.67832e-05
-3.70249e-05
-3.73239e-05
-3.76712e-05
-3.80521e-05
-3.84585e-05
-3.88692e-05
-3.92989e-05
-3.96927e-05
-4.01588e-05
-4.04435e-05
-4.09933e-05
-4.97652e-05
-4.75904e-05
-4.68091e-05
-4.65055e-05
-4.63594e-05
-4.63373e-05
-4.63935e-05
-4.65138e-05
-4.66969e-05
-4.69418e-05
-4.72426e-05
-4.75907e-05
-4.79719e-05
-4.83777e-05
-4.87882e-05
-4.92157e-05
-4.96099e-05
-5.0068e-05
-5.0354e-05
-5.08767e-05
-6.27372e-05
-6.05802e-05
-5.97738e-05
-5.94688e-05
-5.9326e-05
-5.93078e-05
-5.93694e-05
-5.94938e-05
-5.96793e-05
-5.99254e-05
-6.02268e-05
-6.05753e-05
-6.09571e-05
-6.1363e-05
-6.17741e-05
-6.21997e-05
-6.2594e-05
-6.30435e-05
-6.33293e-05
-6.38262e-05
-7.87676e-05
-7.66305e-05
-7.58032e-05
-7.54981e-05
-7.53585e-05
-7.53435e-05
-7.54085e-05
-7.55346e-05
-7.57198e-05
-7.59644e-05
-7.62644e-05
-7.6612e-05
-7.69941e-05
-7.74007e-05
-7.7813e-05
-7.8238e-05
-7.86329e-05
-7.9075e-05
-7.93607e-05
-7.98363e-05
-9.77342e-05
-9.56156e-05
-9.47705e-05
-9.44667e-05
-9.43306e-05
-9.43182e-05
-9.43854e-05
-9.45111e-05
-9.46933e-05
-9.49335e-05
-9.52291e-05
-9.55737e-05
-9.59548e-05
-9.6362e-05
-9.67764e-05
-9.72021e-05
-9.75989e-05
-9.80362e-05
-9.83235e-05
-9.87842e-05
-0.000119443
-0.00011734
-0.00011648
-0.000116178
-0.000116046
-0.000116036
-0.000116104
-0.000116228
-0.000116405
-0.000116638
-0.000116926
-0.000117264
-0.000117642
-0.000118049
-0.000118466
-0.000118894
-0.000119294
-0.00011973
-0.000120022
-0.000120474
-0.000143669
-0.000141581
-0.000140706
-0.000140407
-0.00014028
-0.000140273
-0.000140342
-0.000140463
-0.000140632
-0.000140855
-0.000141132
-0.000141461
-0.000141833
-0.000142237
-0.000142655
-0.000143086
-0.000143492
-0.00014393
-0.00014423
-0.000144681
-0.000170191
-0.000168117
-0.000167229
-0.000166934
-0.000166811
-0.000166808
-0.000166878
-0.000166995
-0.000167156
-0.000167366
-0.000167629
-0.000167945
-0.000168307
-0.000168707
-0.000169125
-0.000169559
-0.000169971
-0.000170415
-0.000170726
-0.000171181
-0.000198811
-0.000196754
-0.000195854
-0.000195562
-0.000195445
-0.000195445
-0.000195517
-0.000195631
-0.000195783
-0.000195979
-0.000196225
-0.000196524
-0.000196873
-0.000197264
-0.00019768
-0.000198116
-0.000198536
-0.000198987
-0.000199312
-0.000199776
-0.000229367
-0.00022733
-0.000226421
-0.000226133
-0.000226022
-0.000226026
-0.0002261
-0.000226211
-0.000226355
-0.000226536
-0.000226763
-0.000227042
-0.000227374
-0.000227753
-0.000228162
-0.000228599
-0.000229025
-0.000229486
-0.000229826
-0.000230302
-0.000261732
-0.000259722
-0.000258807
-0.000258523
-0.000258419
-0.000258428
-0.000258504
-0.000258614
-0.000258749
-0.000258915
-0.000259122
-0.000259379
-0.00025969
-0.000260053
-0.000260453
-0.000260887
-0.000261319
-0.000261789
-0.000262145
-0.000262633
-0.000295814
-0.000293841
-0.000292923
-0.000292643
-0.000292546
-0.000292561
-0.00029264
-0.000292749
-0.000292876
-0.000293028
-0.000293215
-0.000293448
-0.000293736
-0.000294078
-0.000294466
-0.000294894
-0.000295328
-0.000295805
-0.000296177
-0.000296677
-0.000331551
-0.000329622
-0.000328707
-0.000328432
-0.000328343
-0.000328363
-0.000328446
-0.000328555
-0.000328676
-0.000328815
-0.000328981
-0.00032919
-0.000329452
-0.000329771
-0.000330142
-0.00033056
-0.000330993
-0.000331475
-0.000331861
-0.000332371
-0.000368898
-0.000367025
-0.000366118
-0.000365848
-0.000365767
-0.000365794
-0.000365881
-0.000365991
-0.000366108
-0.000366234
-0.000366382
-0.000366566
-0.0003668
-0.000367093
-0.000367443
-0.000367847
-0.000368275
-0.000368759
-0.000369156
-0.000369673
-0.000407833
-0.000406025
-0.000405132
-0.000404869
-0.000404797
-0.00040483
-0.000404922
-0.000405034
-0.000405147
-0.000405264
-0.000405393
-0.000405553
-0.000405759
-0.000406024
-0.000406349
-0.000406735
-0.000407154
-0.000407633
-0.000408038
-0.000408558
-0.000448339
-0.000446606
-0.000445734
-0.000445481
-0.000445417
-0.000445457
-0.000445555
-0.000445669
-0.000445781
-0.000445888
-0.000446002
-0.000446138
-0.000446316
-0.000446551
-0.000446848
-0.000447212
-0.000447616
-0.000448087
-0.000448494
-0.000449013
-0.000490414
-0.000488766
-0.00048792
-0.000487678
-0.000487624
-0.000487671
-0.000487775
-0.000487892
-0.000488004
-0.000488105
-0.000488204
-0.000488319
-0.000488469
-0.000488673
-0.000488939
-0.000489276
-0.000489661
-0.000490118
-0.000490523
-0.000491036
-0.000534062
-0.000532506
-0.000531694
-0.000531464
-0.000531421
-0.000531476
-0.000531586
-0.000531707
-0.000531819
-0.000531915
-0.000532003
-0.000532097
-0.000532221
-0.000532393
-0.000532627
-0.000532934
-0.000533294
-0.000533732
-0.000534128
-0.000534631
-0.000579275
-0.000577817
-0.000577045
-0.00057683
-0.000576798
-0.000576861
-0.000576977
-0.000577103
-0.000577216
-0.00057731
-0.000577387
-0.000577464
-0.000577562
-0.000577703
-0.000577904
-0.000578177
-0.000578508
-0.000578921
-0.000579304
-0.000579791
-0.000626045
-0.000624691
-0.000623963
-0.000623765
-0.000623745
-0.000623817
-0.000623939
-0.00062407
-0.000624186
-0.000624277
-0.000624347
-0.000624409
-0.000624483
-0.000624594
-0.00062476
-0.000624998
-0.000625297
-0.00062568
-0.000626045
-0.00062651
-0.000674332
-0.000673085
-0.000672406
-0.000672225
-0.000672218
-0.000672299
-0.000672428
-0.000672564
-0.000672683
-0.000672775
-0.000672839
-0.000672888
-0.000672941
-0.000673023
-0.000673154
-0.000673355
-0.000673618
-0.000673968
-0.000674308
-0.000674747
-0.000724117
-0.000722979
-0.000722352
-0.000722191
-0.000722197
-0.000722287
-0.000722422
-0.000722564
-0.000722687
-0.00072278
-0.00072284
-0.000722878
-0.000722912
-0.000722967
-0.000723065
-0.000723228
-0.000723453
-0.000723765
-0.000724078
-0.000724486
-0.000775369
-0.00077434
-0.000773767
-0.000773625
-0.000773644
-0.000773744
-0.000773886
-0.000774034
-0.000774162
-0.000774256
-0.000774314
-0.000774343
-0.000774361
-0.000774391
-0.000774456
-0.000774581
-0.000774767
-0.000775039
-0.00077532
-0.000775694
-0.000828114
-0.00082719
-0.000826672
-0.00082655
-0.000826583
-0.000826691
-0.00082684
-0.000826994
-0.000827126
-0.000827224
-0.000827281
-0.000827304
-0.000827308
-0.000827316
-0.000827351
-0.000827439
-0.000827585
-0.000827816
-0.000828062
-0.000828399
-0.000882288
-0.000881466
-0.000881
-0.000880898
-0.000880942
-0.000881059
-0.000881215
-0.000881374
-0.000881512
-0.000881614
-0.000881673
-0.000881692
-0.000881686
-0.000881676
-0.000881684
-0.000881737
-0.000881845
-0.000882033
-0.000882243
-0.000882539
-0.00093773
-0.000937004
-0.000936588
-0.000936503
-0.000936559
-0.000936684
-0.000936846
-0.000937012
-0.000937156
-0.000937264
-0.000937326
-0.000937346
-0.000937333
-0.000937307
-0.000937292
-0.000937314
-0.000937384
-0.000937529
-0.0009377
-0.000937953
-0.000994211
-0.000993572
-0.000993202
-0.000993133
-0.000993196
-0.000993328
-0.000993495
-0.000993667
-0.000993818
-0.000993932
-0.000994
-0.000994022
-0.000994006
-0.00099397
-0.000993936
-0.000993929
-0.000993964
-0.000994068
-0.000994199
-0.000994409
-0.0010515
-0.00105094
-0.00105062
-0.00105056
-0.00105063
-0.00105076
-0.00105094
-0.00105111
-0.00105127
-0.00105139
-0.00105147
-0.00105149
-0.00105148
-0.00105143
-0.00105138
-0.00105135
-0.00105136
-0.00105142
-0.00105152
-0.00105168
-0.00110937
-0.00110888
-0.00110859
-0.00110854
-0.00110861
-0.00110875
-0.00110893
-0.00110911
-0.00110927
-0.0011094
-0.00110949
-0.00110952
-0.00110951
-0.00110946
-0.0011094
-0.00110935
-0.00110932
-0.00110935
-0.00110941
-0.00110953
-0.00116718
-0.00116675
-0.00116649
-0.00116645
-0.00116652
-0.00116666
-0.00116684
-0.00116702
-0.00116719
-0.00116733
-0.00116743
-0.00116747
-0.00116746
-0.00116741
-0.00116734
-0.00116728
-0.00116723
-0.00116722
-0.00116725
-0.00116733
-0.00122393
-0.00122355
-0.00122332
-0.00122328
-0.00122335
-0.00122349
-0.00122367
-0.00122386
-0.00122404
-0.00122419
-0.00122429
-0.00122434
-0.00122434
-0.0012243
-0.00122423
-0.00122414
-0.00122407
-0.00122404
-0.00122403
-0.00122408
-0.00127845
-0.00127811
-0.00127789
-0.00127785
-0.00127792
-0.00127806
-0.00127823
-0.00127843
-0.00127861
-0.00127876
-0.00127888
-0.00127894
-0.00127896
-0.00127892
-0.00127885
-0.00127876
-0.00127868
-0.00127862
-0.00127858
-0.00127859
-0.00133014
-0.00132983
-0.00132962
-0.00132957
-0.00132964
-0.00132977
-0.00132994
-0.00133013
-0.00133032
-0.00133049
-0.00133062
-0.0013307
-0.00133072
-0.0013307
-0.00133063
-0.00133054
-0.00133044
-0.00133037
-0.0013303
-0.00133028
-0.00137853
-0.00137823
-0.00137802
-0.00137797
-0.00137802
-0.00137814
-0.00137831
-0.0013785
-0.0013787
-0.00137888
-0.00137902
-0.00137912
-0.00137916
-0.00137916
-0.0013791
-0.00137901
-0.00137891
-0.00137882
-0.00137873
-0.00137868
-0.0014238
-0.00142352
-0.0014233
-0.00142323
-0.00142327
-0.00142338
-0.00142354
-0.00142373
-0.00142393
-0.00142412
-0.00142428
-0.0014244
-0.00142447
-0.00142448
-0.00142443
-0.00142435
-0.00142425
-0.00142415
-0.00142404
-0.00142397
-0.00146652
-0.00146623
-0.00146601
-0.00146592
-0.00146594
-0.00146604
-0.00146619
-0.00146638
-0.00146658
-0.00146678
-0.00146696
-0.00146709
-0.00146718
-0.00146721
-0.00146719
-0.00146712
-0.00146702
-0.00146691
-0.00146679
-0.00146669
-0.00150658
-0.00150629
-0.00150606
-0.00150595
-0.00150596
-0.00150604
-0.00150618
-0.00150636
-0.00150657
-0.00150678
-0.00150697
-0.00150713
-0.00150723
-0.00150729
-0.00150728
-0.00150722
-0.00150713
-0.00150701
-0.00150688
-0.00150676
-0.00154377
-0.00154349
-0.00154324
-0.00154312
-0.0015431
-0.00154316
-0.00154329
-0.00154347
-0.00154367
-0.00154388
-0.00154409
-0.00154426
-0.00154439
-0.00154446
-0.00154448
-0.00154444
-0.00154435
-0.00154423
-0.00154409
-0.00154396
-0.00157732
-0.00157704
-0.00157679
-0.00157665
-0.00157662
-0.00157666
-0.00157678
-0.00157694
-0.00157714
-0.00157736
-0.00157757
-0.00157776
-0.00157791
-0.001578
-0.00157803
-0.001578
-0.00157792
-0.00157781
-0.00157766
-0.00157751
-0.00160609
-0.00160583
-0.00160557
-0.00160542
-0.00160537
-0.0016054
-0.0016055
-0.00160565
-0.00160585
-0.00160607
-0.00160629
-0.00160649
-0.00160665
-0.00160676
-0.00160681
-0.0016068
-0.00160673
-0.00160661
-0.00160646
-0.00160629
-0.00162974
-0.00162948
-0.00162923
-0.00162906
-0.00162898
-0.00162899
-0.00162908
-0.00162922
-0.00162941
-0.00162963
-0.00162985
-0.00163007
-0.00163025
-0.00163038
-0.00163045
-0.00163045
-0.00163039
-0.00163027
-0.00163012
-0.00162993
-0.00164869
-0.00164845
-0.00164819
-0.00164801
-0.00164792
-0.00164791
-0.00164798
-0.0016481
-0.00164828
-0.00164849
-0.00164871
-0.00164894
-0.00164913
-0.00164928
-0.00164936
-0.00164938
-0.00164933
-0.00164922
-0.00164907
-0.00164888
-0.00166378
-0.00166355
-0.00166329
-0.0016631
-0.00166299
-0.00166296
-0.00166301
-0.00166312
-0.00166329
-0.00166349
-0.00166372
-0.00166394
-0.00166415
-0.00166431
-0.00166441
-0.00166444
-0.00166441
-0.00166431
-0.00166416
-0.00166397
-0.0016731
-0.00167287
-0.00167261
-0.0016724
-0.00167229
-0.00167225
-0.00167228
-0.00167238
-0.00167253
-0.00167273
-0.00167295
-0.00167318
-0.00167339
-0.00167357
-0.00167368
-0.00167373
-0.00167371
-0.00167362
-0.00167348
-0.00167329
-0.00168212
-0.0016819
-0.00168163
-0.00168143
-0.0016813
-0.00168125
-0.00168127
-0.00168136
-0.00168151
-0.00168171
-0.00168193
-0.00168216
-0.00168238
-0.00168256
-0.00168268
-0.00168274